# Force coefficients
# liftDir     : (0.000000e+00 1.000000e+00 0.000000e+00)
# dragDir     : (1.000000e+00 0.000000e+00 0.000000e+00)
# pitchAxis   : (0.000000e+00 0.000000e+00 1.000000e+00)
# magUInf     : 1.000000e+00
# lRef        : 1.000000e+00
# Aref        : 1.000000e+00
# CofR        : (0.000000e+00 0.000000e+00 0.000000e+00)
# Time        	Cm            	Cd            	Cl            	Cl(f)         	Cl(r)         
1             	1.916549e-04	1.012724e-01	-5.327076e-04	-7.469893e-05	-4.580087e-04
2             	3.054202e-04	1.089782e-01	-9.631624e-04	-1.761610e-04	-7.870014e-04
3             	-2.545386e-05	1.161202e-01	-1.326723e-03	-6.888155e-04	-6.379078e-04
4             	-2.700830e-04	1.141545e-01	-1.126620e-03	-8.333930e-04	-2.932271e-04
5             	2.583409e-03	1.024894e-01	5.357900e-03	5.262359e-03	9.554061e-05
6             	1.781808e-04	9.413319e-02	2.833889e-04	3.198753e-04	-3.648639e-05
7             	-2.268843e-05	9.248731e-02	-1.405513e-04	-9.296408e-05	-4.758722e-05
8             	6.994534e-05	9.251674e-02	6.391342e-04	3.895124e-04	2.496217e-04
9             	-1.248686e-04	9.250519e-02	-2.097686e-04	-2.297529e-04	1.998429e-05
10            	-8.397134e-05	9.253038e-02	-2.698403e-06	-8.532054e-05	8.262214e-05
11            	9.063396e-05	9.250058e-02	1.264476e-04	1.538578e-04	-2.741014e-05
12            	-1.515493e-04	9.253824e-02	4.356021e-05	-1.297692e-04	1.733294e-04
13            	-4.326177e-05	9.253275e-02	-2.053736e-04	-1.459486e-04	-5.942503e-05
14            	9.611351e-05	9.252240e-02	4.860187e-04	3.391229e-04	1.468958e-04
15            	-9.139739e-05	9.246789e-02	-4.057330e-04	-2.942639e-04	-1.114691e-04
16            	-2.079471e-04	9.253765e-02	-2.746171e-04	-3.452557e-04	7.063853e-05
17            	-9.226681e-05	9.250306e-02	-2.226424e-04	-2.035880e-04	-1.905439e-05
18            	1.154677e-04	9.254585e-02	4.326421e-04	3.317888e-04	1.008534e-04
19            	-2.430672e-05	9.246049e-02	-1.218073e-04	-8.521040e-05	-3.659695e-05
20            	3.549735e-06	9.254014e-02	-2.253039e-04	-1.091022e-04	-1.162017e-04
21            	-1.100227e-04	9.250416e-02	-2.136655e-05	-1.207059e-04	9.933938e-05
22            	7.424853e-05	9.249648e-02	1.741199e-04	1.613085e-04	1.281144e-05
23            	-3.762788e-05	9.252812e-02	3.904127e-04	1.575785e-04	2.328342e-04
24            	1.509190e-04	9.248549e-02	-1.054962e-04	9.817088e-05	-2.036671e-04
25            	-1.580766e-04	9.254443e-02	-8.996463e-05	-2.030589e-04	1.130943e-04
26            	-8.706695e-06	9.252628e-02	6.036321e-05	2.147491e-05	3.888830e-05
27            	3.125174e-05	9.248689e-02	1.269472e-04	9.472534e-05	3.222187e-05
28            	-1.335956e-04	9.250855e-02	1.336067e-04	-6.679222e-05	2.003990e-04
29            	-1.238965e-04	9.180560e-02	6.083397e-03	2.917802e-03	3.165595e-03
30            	1.634515e-04	9.052922e-02	6.632058e-03	3.479480e-03	3.152577e-03
31            	6.751670e-04	8.967992e-02	4.413665e-03	2.881999e-03	1.531665e-03
32            	1.767419e-03	8.879145e-02	3.937127e-04	1.964276e-03	-1.570563e-03
33            	1.812322e-03	8.809971e-02	-4.754639e-03	-5.649973e-04	-4.189642e-03
34            	1.344707e-03	8.789841e-02	-8.421105e-03	-2.865846e-03	-5.555259e-03
35            	8.803096e-04	8.801903e-02	-1.010889e-02	-4.174134e-03	-5.934753e-03
36            	7.832927e-04	8.800286e-02	-1.049742e-02	-4.465418e-03	-6.032003e-03
37            	6.821218e-04	8.770725e-02	-1.085727e-02	-4.746512e-03	-6.110756e-03
38            	5.316291e-04	8.693728e-02	-1.196803e-02	-5.452386e-03	-6.515644e-03
39            	8.644642e-04	8.645942e-02	-1.730825e-02	-7.789662e-03	-9.518590e-03
40            	4.986995e-04	8.639363e-02	-1.848522e-02	-8.743910e-03	-9.741309e-03
41            	-2.536339e-04	8.604723e-02	-1.725953e-02	-8.883399e-03	-8.376131e-03
42            	-9.885827e-04	8.570844e-02	-1.300208e-02	-7.489620e-03	-5.512455e-03
43            	-1.290692e-03	8.518246e-02	-7.497577e-03	-5.039481e-03	-2.458097e-03
44            	-7.346369e-04	8.414312e-02	-3.051273e-03	-2.260273e-03	-7.909995e-04
45            	-2.826396e-04	8.280019e-02	-1.068739e-03	-8.170093e-04	-2.517301e-04
46            	-2.108604e-04	8.139967e-02	-2.890513e-04	-3.553860e-04	6.633476e-05
47            	-2.913974e-04	8.029606e-02	-2.108976e-04	-3.968462e-04	1.859486e-04
48            	1.073245e-04	7.960428e-02	6.802093e-05	1.413349e-04	-7.331400e-05
49            	3.308600e-05	7.943944e-02	3.318216e-04	1.989968e-04	1.328248e-04
50            	-2.824656e-05	7.942485e-02	1.455317e-04	4.451927e-05	1.010124e-04
51            	8.749520e-07	7.940976e-02	2.438779e-04	1.228139e-04	1.210640e-04
52            	-4.784760e-05	7.940314e-02	6.024626e-06	-4.483529e-05	5.085992e-05
53            	1.247194e-04	7.939552e-02	3.325986e-04	2.910187e-04	4.157993e-05
54            	7.629376e-05	7.939048e-02	8.987146e-05	1.212295e-04	-3.135803e-05
55            	1.961772e-05	7.941610e-02	2.285882e-04	1.339118e-04	9.467640e-05
56            	5.421275e-06	7.942283e-02	2.397919e-04	1.253172e-04	1.144747e-04
57            	-5.208987e-05	7.936213e-02	2.402014e-04	6.801082e-05	1.721905e-04
58            	-1.226508e-05	7.940625e-02	2.020761e-04	8.877299e-05	1.133031e-04
59            	-5.737674e-05	7.940838e-02	-4.054815e-05	-7.765081e-05	3.710266e-05
60            	-2.968355e-05	7.935433e-02	-3.216879e-04	-1.905275e-04	-1.311604e-04
61            	-1.958182e-05	7.938476e-02	-4.088954e-05	-4.002659e-05	-8.629517e-07
62            	-1.434881e-04	7.936685e-02	-1.811787e-04	-2.340774e-04	5.289872e-05
63            	-2.006828e-04	7.933356e-02	7.871969e-05	-1.613229e-04	2.400426e-04
64            	-2.589498e-04	7.861140e-02	5.852380e-03	2.667240e-03	3.185140e-03
65            	6.306287e-05	7.742450e-02	7.003816e-03	3.564971e-03	3.438845e-03
66            	8.788329e-04	7.657863e-02	4.805563e-03	3.281614e-03	1.523949e-03
67            	1.548697e-03	7.569761e-02	8.279433e-04	1.962668e-03	-1.134725e-03
68            	1.567082e-03	7.510329e-02	-4.886142e-03	-8.759891e-04	-4.010153e-03
69            	1.201549e-03	7.486836e-02	-8.975193e-03	-3.286047e-03	-5.689145e-03
70            	9.786735e-04	7.495727e-02	-1.081664e-02	-4.429645e-03	-6.386993e-03
71            	7.866577e-04	7.507721e-02	-1.151034e-02	-4.968512e-03	-6.541827e-03
72            	7.827268e-04	7.496165e-02	-1.124604e-02	-4.840295e-03	-6.405748e-03
73            	8.383972e-04	7.442421e-02	-1.190185e-02	-5.112527e-03	-6.789322e-03
74            	1.005920e-03	7.418721e-02	-1.812871e-02	-8.058435e-03	-1.007028e-02
75            	8.077912e-04	7.415413e-02	-1.910184e-02	-8.743131e-03	-1.035871e-02
76            	2.223588e-04	7.381264e-02	-1.758859e-02	-8.571936e-03	-9.016654e-03
77            	-6.260773e-04	7.355314e-02	-1.387804e-02	-7.565098e-03	-6.312944e-03
78            	-9.554760e-04	7.300705e-02	-7.633726e-03	-4.772339e-03	-2.861387e-03
79            	-6.394539e-04	7.203726e-02	-3.037245e-03	-2.158076e-03	-8.791685e-04
80            	-2.081948e-04	7.081334e-02	-1.158154e-03	-7.872720e-04	-3.708824e-04
81            	-6.240816e-05	6.933728e-02	-7.576917e-04	-4.412540e-04	-3.164377e-04
82            	-2.171250e-04	6.803139e-02	-7.197142e-04	-5.769821e-04	-1.427321e-04
83            	-1.156526e-04	6.723813e-02	6.633204e-05	-8.248659e-05	1.488186e-04
84            	5.410991e-05	6.679693e-02	3.619829e-04	2.351013e-04	1.268815e-04
85            	-3.757321e-05	6.680775e-02	-3.215740e-04	-1.983602e-04	-1.232138e-04
86            	2.338141e-05	6.685140e-02	-2.049409e-05	1.313437e-05	-3.362846e-05
87            	-7.628258e-05	6.680299e-02	-1.279284e-04	-1.402468e-04	1.231839e-05
88            	-1.769407e-04	6.677206e-02	-1.483712e-04	-2.511263e-04	1.027551e-04
89            	-3.116793e-05	6.683914e-02	4.130398e-04	1.753520e-04	2.376879e-04
90            	-3.192880e-05	6.679938e-02	-2.021359e-04	-1.329968e-04	-6.913916e-05
91            	-2.572506e-05	6.679303e-02	-1.118806e-05	-3.131909e-05	2.013103e-05
92            	-1.216450e-04	6.675554e-02	-2.349482e-04	-2.391191e-04	4.170911e-06
93            	-7.451935e-05	6.676047e-02	-4.094720e-04	-2.792553e-04	-1.302166e-04
94            	-3.913415e-05	6.678647e-02	-3.220630e-04	-2.001656e-04	-1.218973e-04
95            	-8.633567e-06	6.678272e-02	3.729506e-04	1.778417e-04	1.951089e-04
96            	-1.903803e-04	6.679089e-02	-3.395848e-06	-1.920782e-04	1.886824e-04
97            	-1.878115e-04	6.683380e-02	2.343282e-05	-1.760951e-04	1.995279e-04
98            	-9.871220e-05	6.676352e-02	2.083025e-04	5.439048e-06	2.028634e-04
99            	-1.137331e-04	6.600210e-02	6.019008e-03	2.895771e-03	3.123237e-03
100           	-1.715107e-04	6.477192e-02	6.463964e-03	3.060471e-03	3.403493e-03
101           	8.264160e-04	6.400115e-02	5.467259e-03	3.560046e-03	1.907214e-03
102           	1.334912e-03	6.323815e-02	1.130042e-03	1.899933e-03	-7.698905e-04
103           	1.549341e-03	6.261676e-02	-5.065125e-03	-9.832218e-04	-4.081903e-03
104           	1.372810e-03	6.247294e-02	-9.366173e-03	-3.310277e-03	-6.055896e-03
105           	1.133027e-03	6.259730e-02	-1.112108e-02	-4.427516e-03	-6.693569e-03
106           	9.703018e-04	6.277084e-02	-1.182028e-02	-4.939838e-03	-6.880442e-03
107           	1.121565e-03	6.282137e-02	-1.178333e-02	-4.770097e-03	-7.013228e-03
108           	1.247329e-03	6.246696e-02	-1.231718e-02	-4.911259e-03	-7.405917e-03
109           	1.369482e-03	6.248910e-02	-1.834711e-02	-7.804075e-03	-1.054304e-02
110           	1.111773e-03	6.251463e-02	-1.960966e-02	-8.693056e-03	-1.091660e-02
111           	4.490616e-04	6.215258e-02	-1.861891e-02	-8.860396e-03	-9.758519e-03
112           	-4.423257e-05	6.189742e-02	-1.391677e-02	-7.002616e-03	-6.914151e-03
113           	-2.631493e-04	6.141388e-02	-8.134480e-03	-4.330389e-03	-3.804091e-03
114           	-4.255976e-04	6.050120e-02	-3.982923e-03	-2.417059e-03	-1.565864e-03
115           	-1.008726e-04	5.933348e-02	-8.295887e-04	-5.156670e-04	-3.139217e-04
116           	-5.527763e-05	5.789777e-02	-2.505428e-04	-1.805490e-04	-6.999375e-05
117           	-9.626379e-05	5.653053e-02	-6.297869e-04	-4.111573e-04	-2.186297e-04
118           	-6.782464e-05	5.558265e-02	1.424031e-04	3.376926e-06	1.390262e-04
119           	-1.464943e-05	5.497169e-02	2.597797e-04	1.152404e-04	1.445393e-04
120           	-4.412091e-05	5.470610e-02	2.076558e-05	-3.373812e-05	5.450370e-05
121           	-8.665042e-05	5.469015e-02	-2.384338e-05	-9.857211e-05	7.472873e-05
122           	1.252665e-05	5.466352e-02	-3.487310e-05	-4.909901e-06	-2.996320e-05
123           	-2.091544e-06	5.473084e-02	1.258132e-04	6.081507e-05	6.499816e-05
124           	-1.977105e-05	5.465822e-02	1.133489e-05	-1.410360e-05	2.543849e-05
125           	-2.603896e-05	5.469615e-02	4.559428e-05	-3.241815e-06	4.883610e-05
126           	8.389680e-05	5.471143e-02	6.781597e-05	1.178048e-04	-4.998882e-05
127           	2.675709e-05	5.470837e-02	1.998023e-04	1.266583e-04	7.314408e-05
128           	-4.988299e-05	5.468125e-02	-1.371845e-04	-1.184752e-04	-1.870924e-05
129           	-3.267945e-05	5.471766e-02	1.500406e-04	4.234085e-05	1.076997e-04
130           	-3.581234e-05	5.468328e-02	-1.467001e-04	-1.091624e-04	-3.753770e-05
131           	6.354218e-05	5.469501e-02	-3.013283e-05	4.847576e-05	-7.860860e-05
132           	-3.373114e-05	5.469482e-02	-6.163392e-05	-6.454811e-05	2.914181e-06
133           	-1.794703e-04	5.466124e-02	8.157476e-04	2.284034e-04	5.873441e-04
134           	-1.387034e-04	5.382094e-02	6.525139e-03	3.123866e-03	3.401273e-03
135           	-5.170168e-05	5.270342e-02	6.537044e-03	3.216821e-03	3.320224e-03
136           	8.477611e-04	5.200214e-02	5.541674e-03	3.618598e-03	1.923076e-03
137           	1.007908e-03	5.127034e-02	8.876208e-04	1.451718e-03	-5.640976e-04
138           	1.291279e-03	5.069712e-02	-5.011012e-03	-1.214227e-03	-3.796785e-03
139           	1.321379e-03	5.048521e-02	-9.405477e-03	-3.381359e-03	-6.024117e-03
140           	1.278462e-03	5.057886e-02	-1.158997e-02	-4.516521e-03	-7.073445e-03
141           	1.228001e-03	5.088422e-02	-1.207425e-02	-4.809123e-03	-7.265126e-03
142           	1.350342e-03	5.110583e-02	-1.217354e-02	-4.736430e-03	-7.437114e-03
143           	1.552757e-03	5.101016e-02	-1.260948e-02	-4.751984e-03	-7.857497e-03
144           	1.737589e-03	5.130984e-02	-1.869713e-02	-7.610975e-03	-1.108615e-02
145           	1.677117e-03	5.153460e-02	-1.932302e-02	-7.984395e-03	-1.133863e-02
146           	9.380074e-04	5.113636e-02	-1.857714e-02	-8.350560e-03	-1.022658e-02
147           	6.572437e-04	5.079271e-02	-1.435282e-02	-6.519165e-03	-7.833652e-03
148           	3.062220e-04	5.029000e-02	-8.486192e-03	-3.936874e-03	-4.549318e-03
149           	8.660773e-05	4.954451e-02	-3.703013e-03	-1.764899e-03	-1.938114e-03
150           	4.828592e-05	4.839705e-02	-9.484274e-04	-4.259278e-04	-5.224996e-04
151           	4.312974e-05	4.701659e-02	-3.013627e-04	-1.075516e-04	-1.938111e-04
152           	7.264291e-05	4.564237e-02	1.543177e-04	1.498018e-04	4.515948e-06
153           	-1.720496e-05	4.451545e-02	-9.760977e-05	-6.600985e-05	-3.159993e-05
154           	-3.592516e-05	4.373221e-02	1.858448e-04	5.699724e-05	1.288476e-04
155           	3.717397e-05	4.324855e-02	7.257110e-04	4.000295e-04	3.256815e-04
156           	2.638977e-05	4.310585e-02	-1.765507e-04	-6.188560e-05	-1.146651e-04
157           	-1.258742e-04	4.305372e-02	-4.044701e-04	-3.281092e-04	-7.636089e-05
158           	-8.001034e-05	4.305600e-02	-8.611418e-05	-1.230674e-04	3.695325e-05
159           	-3.111198e-05	4.306688e-02	-1.216656e-05	-3.719526e-05	2.502870e-05
160           	-6.322226e-07	4.308455e-02	-1.244862e-04	-6.287530e-05	-6.161085e-05
161           	-2.213711e-07	4.309505e-02	2.332307e-04	1.163940e-04	1.168367e-04
162           	-3.676156e-05	4.305429e-02	2.562535e-04	9.136521e-05	1.648883e-04
163           	-3.747412e-05	4.303898e-02	-8.596478e-05	-8.045651e-05	-5.508271e-06
164           	1.470371e-05	4.308984e-02	1.440327e-05	2.190534e-05	-7.502073e-06
165           	-4.971495e-05	4.307621e-02	1.913760e-04	4.597303e-05	1.454029e-04
166           	-8.898824e-05	4.301782e-02	-1.123136e-04	-1.451451e-04	3.283141e-05
167           	8.517441e-05	4.307127e-02	1.822907e-04	1.763198e-04	5.970944e-06
168           	-2.169838e-04	4.301471e-02	8.603070e-04	2.131697e-04	6.471373e-04
169           	-2.244304e-04	4.213728e-02	7.036135e-03	3.293637e-03	3.742498e-03
170           	-8.505330e-05	4.107406e-02	6.640571e-03	3.235232e-03	3.405339e-03
171           	7.551098e-04	4.044807e-02	5.481337e-03	3.495778e-03	1.985559e-03
172           	7.965931e-04	3.973561e-02	8.239931e-04	1.208590e-03	-3.845965e-04
173           	1.269073e-03	3.928661e-02	-4.222473e-03	-8.421639e-04	-3.380309e-03
174           	1.501384e-03	3.907571e-02	-8.543929e-03	-2.770581e-03	-5.773348e-03
175           	1.480831e-03	3.911962e-02	-1.142709e-02	-4.232716e-03	-7.194378e-03
176           	1.601836e-03	3.937279e-02	-1.204827e-02	-4.422297e-03	-7.625969e-03
177           	1.595979e-03	3.965803e-02	-1.219303e-02	-4.500538e-03	-7.692496e-03
178           	1.950115e-03	3.977423e-02	-1.289452e-02	-4.497143e-03	-8.397373e-03
179           	2.125582e-03	4.035477e-02	-1.896388e-02	-7.356358e-03	-1.160752e-02
180           	2.223591e-03	4.075504e-02	-1.930327e-02	-7.428045e-03	-1.187523e-02
181           	1.550341e-03	4.059050e-02	-1.825925e-02	-7.579285e-03	-1.067997e-02
182           	1.493088e-03	4.023519e-02	-1.352508e-02	-5.269454e-03	-8.255630e-03
183           	9.733410e-04	3.972651e-02	-8.893965e-03	-3.473642e-03	-5.420324e-03
184           	5.031951e-04	3.899271e-02	-4.407885e-03	-1.700748e-03	-2.707138e-03
185           	3.062209e-04	3.800987e-02	-1.165919e-03	-2.767384e-04	-8.891802e-04
186           	2.209496e-04	3.674527e-02	-3.816461e-05	2.018673e-04	-2.400319e-04
187           	2.427274e-04	3.532855e-02	1.760253e-04	3.307400e-04	-1.547147e-04
188           	3.982640e-05	3.407620e-02	1.907717e-04	1.352123e-04	5.555946e-05
189           	-3.578275e-05	3.302594e-02	-1.632056e-04	-1.173856e-04	-4.582005e-05
190           	-3.014274e-05	3.236379e-02	7.430769e-06	-2.642736e-05	3.385813e-05
191           	-9.091460e-05	3.194277e-02	1.882826e-06	-8.997319e-05	9.185602e-05
192           	-3.827340e-05	3.177804e-02	-1.888630e-04	-1.327049e-04	-5.615809e-05
193           	-7.674513e-05	3.180061e-02	-5.848257e-05	-1.059864e-04	4.750384e-05
194           	-6.363115e-05	3.178213e-02	-7.810756e-05	-1.026849e-04	2.457737e-05
195           	-7.242993e-05	3.177825e-02	-5.183535e-05	-9.834761e-05	4.651226e-05
196           	-3.487896e-05	3.177009e-02	-2.465058e-04	-1.581319e-04	-8.837396e-05
197           	-7.698544e-05	3.179211e-02	-1.605730e-05	-8.501410e-05	6.895679e-05
198           	4.337641e-05	3.178758e-02	3.070010e-04	1.968769e-04	1.101241e-04
199           	-4.078847e-05	3.177839e-02	-2.370028e-04	-1.592899e-04	-7.771293e-05
200           	-5.228968e-05	3.178081e-02	-1.276231e-04	-1.161012e-04	-1.152188e-05
201           	-8.566468e-05	3.181780e-02	-2.486976e-05	-9.809956e-05	7.322980e-05
202           	1.239203e-05	3.179721e-02	1.590599e-04	9.192197e-05	6.713792e-05
203           	-3.242661e-04	3.170697e-02	5.481055e-04	-5.021335e-05	5.983188e-04
204           	-2.592944e-04	3.080157e-02	6.712940e-03	3.097176e-03	3.615764e-03
205           	-2.218021e-04	2.983378e-02	6.475108e-03	3.015752e-03	3.459356e-03
206           	4.430535e-04	2.923874e-02	5.334639e-03	3.110373e-03	2.224266e-03
207           	4.189979e-04	2.867975e-02	2.800031e-04	5.589994e-04	-2.789963e-04
208           	1.004087e-03	2.822279e-02	-3.994295e-03	-9.930607e-04	-3.001234e-03
209           	1.505070e-03	2.804179e-02	-8.071078e-03	-2.530469e-03	-5.540609e-03
210           	1.681328e-03	2.804760e-02	-1.088483e-02	-3.761085e-03	-7.123741e-03
211           	1.848026e-03	2.828579e-02	-1.177696e-02	-4.040452e-03	-7.736505e-03
212           	1.951620e-03	2.858614e-02	-1.183544e-02	-3.966100e-03	-7.869340e-03
213           	2.233189e-03	2.889985e-02	-1.284918e-02	-4.191401e-03	-8.657779e-03
214           	2.525731e-03	2.981165e-02	-1.852192e-02	-6.735228e-03	-1.178669e-02
215           	2.623348e-03	3.042930e-02	-1.837789e-02	-6.565597e-03	-1.181229e-02
216           	2.059976e-03	3.043456e-02	-1.713299e-02	-6.506519e-03	-1.062647e-02
217           	1.983436e-03	3.017073e-02	-1.247314e-02	-4.253132e-03	-8.220005e-03
218           	1.545791e-03	2.969151e-02	-8.940230e-03	-2.924323e-03	-6.015906e-03
219           	9.031977e-04	2.904299e-02	-4.604892e-03	-1.399249e-03	-3.205644e-03
220           	5.934122e-04	2.812034e-02	-1.671075e-03	-2.421251e-04	-1.428950e-03
221           	4.071648e-04	2.699264e-02	3.079103e-04	5.611199e-04	-2.532096e-04
222           	4.137145e-04	2.569313e-02	6.010993e-04	7.142642e-04	-1.131649e-04
223           	3.723553e-04	2.437096e-02	5.605730e-04	6.526419e-04	-9.206883e-05
224           	1.804252e-04	2.320824e-02	2.487155e-04	3.047830e-04	-5.606749e-05
225           	1.587407e-04	2.231047e-02	2.917769e-04	3.046291e-04	-1.285225e-05
226           	-4.416978e-07	2.164408e-02	1.519126e-04	7.551462e-05	7.639801e-05
227           	7.488834e-05	2.123279e-02	2.507633e-04	2.002700e-04	5.049332e-05
228           	5.983916e-05	2.109850e-02	3.651124e-04	2.423953e-04	1.227170e-04
229           	1.337291e-05	2.110473e-02	-1.025054e-04	-3.787978e-05	-6.462560e-05
230           	7.146216e-05	2.109119e-02	1.826062e-06	7.237519e-05	-7.054912e-05
231           	-1.434516e-05	2.105951e-02	3.691082e-04	1.702089e-04	1.988993e-04
232           	9.361189e-05	2.106466e-02	2.412169e-04	2.142204e-04	2.699657e-05
233           	5.166991e-05	2.106908e-02	3.094967e-04	2.064183e-04	1.030785e-04
234           	-4.026830e-05	2.104985e-02	-5.816520e-05	-6.935090e-05	1.118570e-05
235           	2.653339e-05	2.106997e-02	8.079776e-05	6.693227e-05	1.386550e-05
236           	8.713069e-05	2.107035e-02	4.783183e-04	3.262898e-04	1.520285e-04
237           	1.235475e-04	2.106229e-02	2.394488e-04	2.432719e-04	-3.823108e-06
238           	-2.295951e-04	2.098618e-02	1.255167e-03	3.979882e-04	8.571785e-04
239           	-2.684650e-04	1.999294e-02	6.595769e-03	3.029419e-03	3.566349e-03
240           	-1.034900e-04	1.920890e-02	7.056840e-03	3.424930e-03	3.631910e-03
241           	3.489350e-04	1.862973e-02	4.944472e-03	2.821171e-03	2.123301e-03
242           	3.872501e-04	1.817681e-02	4.075299e-04	5.910150e-04	-1.834851e-04
243           	9.837930e-04	1.784242e-02	-3.484284e-03	-7.583493e-04	-2.725935e-03
244           	1.542044e-03	1.767145e-02	-7.088516e-03	-2.002214e-03	-5.086302e-03
245           	1.935110e-03	1.766172e-02	-9.815463e-03	-2.972622e-03	-6.842841e-03
246           	2.123966e-03	1.785730e-02	-1.131423e-02	-3.533150e-03	-7.781082e-03
247           	2.209673e-03	1.821556e-02	-1.180273e-02	-3.691690e-03	-8.111037e-03
248           	2.511430e-03	1.870177e-02	-1.290563e-02	-3.941385e-03	-8.964245e-03
249           	2.885777e-03	1.983789e-02	-1.860945e-02	-6.418950e-03	-1.219050e-02
250           	2.956053e-03	2.061217e-02	-1.853168e-02	-6.309786e-03	-1.222189e-02
251           	2.688065e-03	2.086968e-02	-1.695508e-02	-5.789475e-03	-1.116560e-02
252           	2.691580e-03	2.088468e-02	-1.266882e-02	-3.642830e-03	-9.025990e-03
253           	2.110815e-03	2.059627e-02	-9.512904e-03	-2.645637e-03	-6.867267e-03
254           	1.464815e-03	2.005417e-02	-5.825051e-03	-1.447710e-03	-4.377341e-03
255           	9.256648e-04	1.935299e-02	-2.730796e-03	-4.397332e-04	-2.291063e-03
256           	6.386376e-04	1.845164e-02	-5.831643e-04	3.470554e-04	-9.302198e-04
257           	5.391766e-04	1.741239e-02	8.374650e-04	9.579091e-04	-1.204441e-04
258           	4.834747e-04	1.622719e-02	9.277494e-04	9.473494e-04	-1.960006e-05
259           	4.233893e-04	1.504068e-02	8.261737e-04	8.364762e-04	-1.030248e-05
260           	2.258298e-04	1.398567e-02	6.199043e-04	5.357819e-04	8.412232e-05
261           	1.366375e-04	1.313792e-02	1.313874e-04	2.023312e-04	-7.094380e-05
262           	9.330373e-05	1.255606e-02	2.253157e-04	2.059616e-04	1.935410e-05
263           	1.413314e-04	1.217634e-02	3.729473e-04	3.278051e-04	4.514222e-05
264           	1.035368e-04	1.197711e-02	4.054486e-04	3.062611e-04	9.918755e-05
265           	5.289858e-05	1.186280e-02	1.251372e-04	1.154672e-04	9.670000e-06
266           	1.267379e-04	1.186398e-02	2.249400e-04	2.392079e-04	-1.426791e-05
267           	1.291729e-04	1.185275e-02	2.064381e-04	2.323919e-04	-2.595380e-05
268           	9.234685e-05	1.187247e-02	1.756715e-04	1.801826e-04	-4.511115e-06
269           	6.782339e-05	1.186025e-02	2.336479e-04	1.846473e-04	4.900057e-05
270           	1.173488e-04	1.188634e-02	3.228777e-04	2.787877e-04	4.409002e-05
271           	1.294157e-04	1.187391e-02	2.743855e-04	2.666084e-04	7.777093e-06
272           	1.206683e-04	1.187076e-02	6.040348e-05	1.508700e-04	-9.046657e-05
273           	-2.091329e-04	1.176366e-02	1.719526e-03	6.506299e-04	1.068896e-03
274           	-2.820914e-04	1.072782e-02	7.088919e-03	3.262368e-03	3.826551e-03
275           	-5.457320e-05	1.004656e-02	7.215156e-03	3.553005e-03	3.662151e-03
276           	2.167019e-04	9.578075e-03	4.698280e-03	2.565842e-03	2.132438e-03
277           	3.566262e-04	9.256662e-03	7.343327e-04	7.237926e-04	1.054015e-05
278           	8.653639e-04	9.029538e-03	-2.644527e-03	-4.568996e-04	-2.187627e-03
279           	1.482571e-03	8.925624e-03	-6.064904e-03	-1.549881e-03	-4.515023e-03
280           	2.042022e-03	8.947642e-03	-8.725462e-03	-2.320709e-03	-6.404753e-03
281           	2.374364e-03	9.109619e-03	-1.064494e-02	-2.948104e-03	-7.696832e-03
282           	2.570071e-03	9.459588e-03	-1.144265e-02	-3.151256e-03	-8.291397e-03
283           	2.809722e-03	1.000593e-02	-1.320219e-02	-3.791375e-03	-9.410819e-03
284           	3.172101e-03	1.141294e-02	-1.884275e-02	-6.249273e-03	-1.259347e-02
285           	3.107581e-03	1.237792e-02	-1.869182e-02	-6.238327e-03	-1.245349e-02
286           	2.958763e-03	1.292437e-02	-1.631196e-02	-5.197217e-03	-1.111474e-02
287           	2.916263e-03	1.318749e-02	-1.268179e-02	-3.424631e-03	-9.257156e-03
288           	2.477397e-03	1.320334e-02	-1.010571e-02	-2.575459e-03	-7.530253e-03
289           	1.889463e-03	1.302042e-02	-7.188669e-03	-1.704871e-03	-5.483798e-03
290           	1.375635e-03	1.266293e-02	-4.108566e-03	-6.786482e-04	-3.429918e-03
291           	8.507464e-04	1.228647e-02	-1.483006e-03	1.092433e-04	-1.592249e-03
292           	4.653729e-04	1.189109e-02	-1.526066e-04	3.890696e-04	-5.416763e-04
293           	3.125734e-04	1.158049e-02	5.811679e-04	6.031574e-04	-2.198945e-05
294           	2.509243e-04	1.123324e-02	6.687343e-04	5.852914e-04	8.344283e-05
295           	1.087717e-04	1.074348e-02	4.874437e-04	3.524936e-04	1.349501e-04
296           	-2.178945e-05	9.801659e-03	3.970691e-04	1.767451e-04	2.203240e-04
297           	-8.232181e-05	8.679667e-03	8.091211e-05	-4.186576e-05	1.227779e-04
298           	-2.310605e-04	7.758890e-03	-2.394869e-04	-3.508039e-04	1.113171e-04
299           	-2.852910e-04	7.117114e-03	-3.994474e-04	-4.850146e-04	8.556726e-05
300           	-2.496274e-04	6.748274e-03	-4.339473e-04	-4.666010e-04	3.265372e-05
301           	-2.594812e-04	6.514078e-03	-5.947379e-04	-5.568501e-04	-3.788779e-05
302           	-3.061687e-04	6.420698e-03	-5.171606e-04	-5.647490e-04	4.758841e-05
303           	-2.969427e-04	6.380812e-03	-3.551601e-04	-4.745228e-04	1.193627e-04
304           	-3.294695e-04	6.370908e-03	-4.424106e-04	-5.506748e-04	1.082642e-04
305           	-3.282100e-04	6.390668e-03	-2.993520e-04	-4.778860e-04	1.785340e-04
306           	-3.411768e-04	6.367239e-03	-4.933039e-04	-5.878287e-04	9.452478e-05
307           	-3.104013e-04	6.373802e-03	-3.531887e-04	-4.869957e-04	1.338070e-04
308           	-6.620346e-04	6.233546e-03	1.222463e-03	-5.080286e-05	1.273266e-03
309           	-7.434448e-04	5.219060e-03	6.335842e-03	2.424476e-03	3.911366e-03
310           	-4.273120e-04	4.986317e-03	6.521740e-03	2.833558e-03	3.688182e-03
311           	-3.479498e-04	5.362378e-03	3.349447e-03	1.326774e-03	2.022673e-03
312           	-1.653915e-04	5.939805e-03	-1.941949e-04	-2.624889e-04	6.829404e-05
313           	2.851953e-04	6.559548e-03	-2.983343e-03	-1.206476e-03	-1.776867e-03
314           	1.000454e-03	7.210562e-03	-5.700939e-03	-1.850016e-03	-3.850923e-03
315           	1.633325e-03	7.929791e-03	-7.919503e-03	-2.326426e-03	-5.593076e-03
316           	2.134337e-03	8.879283e-03	-9.857822e-03	-2.794574e-03	-7.063249e-03
317           	2.347544e-03	1.004802e-02	-1.128430e-02	-3.294604e-03	-7.989692e-03
318           	2.721121e-03	1.139126e-02	-1.396367e-02	-4.260715e-03	-9.702957e-03
319           	2.739562e-03	1.378024e-02	-2.007206e-02	-7.296469e-03	-1.277559e-02
320           	2.405298e-03	1.569161e-02	-2.085749e-02	-8.023445e-03	-1.283404e-02
321           	2.457407e-03	1.740467e-02	-1.803606e-02	-6.560620e-03	-1.147543e-02
322           	2.356865e-03	1.915721e-02	-1.465365e-02	-4.969961e-03	-9.683691e-03
323           	2.120925e-03	2.076718e-02	-1.189741e-02	-3.827781e-03	-8.069631e-03
324           	1.309075e-03	2.231107e-02	-1.031452e-02	-3.848183e-03	-6.466332e-03
325           	7.044718e-04	2.368552e-02	-7.975808e-03	-3.283432e-03	-4.692376e-03
326           	2.199109e-04	2.491828e-02	-5.460759e-03	-2.510469e-03	-2.950291e-03
327           	-3.074865e-04	2.586417e-02	-3.840483e-03	-2.227728e-03	-1.612755e-03
328           	-2.705862e-04	2.641272e-02	-1.621756e-03	-1.081464e-03	-5.402917e-04
329           	-1.642975e-04	2.710080e-02	-3.925357e-04	-3.605654e-04	-3.197034e-05
330           	4.290623e-05	2.723050e-02	5.028429e-05	6.804838e-05	-1.776409e-05
331           	-2.634953e-04	2.748130e-02	-1.931854e-03	-1.229422e-03	-7.024315e-04
332           	6.697930e-04	2.737255e-02	1.043896e-03	1.191741e-03	-1.478448e-04
333           	6.195971e-04	2.720183e-02	1.012152e-03	1.125673e-03	-1.135209e-04
334           	6.525702e-04	2.833098e-02	2.055477e-03	1.680309e-03	3.751684e-04
335           	3.976784e-04	3.052123e-02	4.370810e-04	6.162189e-04	-1.791379e-04
336           	5.372859e-04	3.271685e-02	1.536065e-03	1.305318e-03	2.307464e-04
337           	9.056361e-04	3.462137e-02	2.411489e-03	2.111381e-03	3.001086e-04
338           	5.217085e-04	3.634589e-02	1.249288e-03	1.146353e-03	1.029356e-04
339           	8.504648e-04	3.868054e-02	1.426015e-03	1.563472e-03	-1.374575e-04
340           	6.665467e-04	4.112230e-02	-1.472050e-04	5.929442e-04	-7.401493e-04
341           	4.318152e-04	4.386913e-02	3.493635e-03	2.178632e-03	1.315002e-03
342           	5.859747e-04	4.718443e-02	1.772347e-03	1.472148e-03	3.001987e-04
343           	-1.818585e-04	5.067149e-02	2.157258e-03	8.967706e-04	1.260487e-03
344           	-8.010655e-04	5.271917e-02	6.779358e-03	2.588614e-03	4.190744e-03
345           	-5.709846e-04	5.613643e-02	5.658591e-03	2.258311e-03	3.400280e-03
346           	-4.799386e-05	6.013102e-02	4.336176e-03	2.120094e-03	2.216082e-03
347           	-1.627853e-04	6.437049e-02	-1.838705e-03	-1.082138e-03	-7.565672e-04
348           	7.339279e-04	7.045325e-02	-4.035487e-03	-1.283816e-03	-2.751672e-03
349           	2.274825e-03	7.619304e-02	-1.676153e-03	1.436749e-03	-3.112902e-03
350           	2.278118e-03	8.324314e-02	1.491193e-04	2.352677e-03	-2.203558e-03
351           	1.838839e-03	9.016277e-02	-6.167653e-03	-1.244988e-03	-4.922665e-03
352           	1.966475e-03	9.763706e-02	-7.446391e-03	-1.756721e-03	-5.689670e-03
353           	2.462497e-03	1.059194e-01	-1.319983e-02	-4.137420e-03	-9.062413e-03
354           	3.887094e-03	1.165194e-01	-2.189441e-02	-7.060109e-03	-1.483430e-02
355           	3.291963e-03	1.276437e-01	-7.696853e-03	-5.564633e-04	-7.140389e-03
356           	2.485320e-03	1.385127e-01	-1.061061e-02	-2.819983e-03	-7.790623e-03
357           	3.499713e-03	1.487140e-01	-1.635989e-02	-4.680232e-03	-1.167966e-02
358           	3.738506e-03	1.601558e-01	-9.449489e-03	-9.862384e-04	-8.463251e-03
359           	1.597456e-03	1.707939e-01	-5.055181e-03	-9.301341e-04	-4.125047e-03